3
Step  37 E=    -150.828770 |G|=  0.002489 S_lin= 0.8148 S_tot= 0.8192
O       0.2851967176     0.4169056081     0.0000003460
O      -0.7960828182    -0.0982397166     0.0000000068
H       2.0753194930    -1.1939471989    -0.0000001201
