3
PES scan, value:    3.0000 energy:  -76.2344383103
O         0.1012201489    0.0000000000   -0.8112231142
H        -0.2548821848    0.0000000000    2.1675670972
H         1.0582125133    0.0000000000   -0.6350350293
