3
Step  44 E=    -150.828964 |G|=  0.002341 S_lin= 2.0944 S_tot= 2.2172
O       1.1588024104     0.0003853822    -0.0000000010
O      -0.0380141305    -0.0002038938     0.0000000041
H      -2.6919474013    -0.0015038288    -0.0000000006
