5
Step  31 E=    -152.053926 |G|=  0.002435 S_lin= 1.4712 S_tot= 1.5120
H       1.1605221919    -0.7052470288     0.4931807023
O       1.0176860800     0.0988972349    -0.0197184305
O      -0.4084442959     0.1054071456    -0.1219072735
H      -0.6357079099     0.8602511211     0.4340699470
H      -2.7765838251    -0.6696661338    -0.1034120804
