6
Step  36 E=    -227.345525 |G|=  0.002489 S_lin= 1.7291 S_tot= 2.0755
O      -0.9802131458    -0.8744999227     0.0062569583
O      -1.2496718518     0.4079199419     0.1216079035
H      -1.9850798559     0.5725531895    -0.4931056161
H       1.1180280630    -0.4126286659     0.2413187265
O       1.8402929480     0.1160535688    -0.1117302757
H       1.4209355398     0.9447630926    -0.3534413943
