4
Step  31 E=    -151.493922 |G|=  0.002066 S_lin= 1.5855 S_tot= 1.7583
H       1.2064937876    -0.8018908070     0.0000957317
O       1.2525278352     0.1569963243    -0.0008232275
H       0.3319505856     0.4318141207     0.0054669556
O      -1.7016208983    -0.4605023528    -0.0022670085
