4
Step  55  E=    -151.473121 |G|=  0.000479 S_lin= 0.5298 S_tot= 0.5499
O      -0.0624409435     0.1214986734    -0.0111533020
H       0.0217627970    -0.1019551245     0.9351878604
H       2.1968490120    -0.1080085708     0.7041183987
O       2.2975583501    -0.4717537437     1.6042454047
