4
Step  40 E=    -151.502034 |G|=  0.002344 S_lin= 1.9783 S_tot= 2.3416
O       0.8118622176    -0.3093589696     0.0000131956
O       0.2415337489     0.7429905450    -0.0003238533
H      -1.8877182913    -0.4890830675    -0.0002458679
H      -2.4302354567    -0.9955623383     0.0001002316
