4
Step  33 E=    -226.046097 |G|=  0.002181 S_lin= 1.5971 S_tot= 1.8876
O       1.1503004422    -0.5913228079    -0.1381556525
O       1.3993547690     0.5651546735     0.0476890091
H      -0.9902061393    -0.4786847288    -0.3196709338
O      -1.8651868992    -0.0860371254    -0.1542355629
