4
Step  64 E=    -151.472405 |G|=  0.002373 S_lin= 2.3136 S_tot= 3.1005
H       0.7810885740    -0.4413329838    -0.0358133226
O       1.7394421412    -0.5682052061     0.0942471841
O      -0.9029560562     0.7527018682     0.0759257132
H      -1.8377002746     0.6005688538    -0.1490191088
