4
Step 200 E=     -76.927593 |G|=  0.001877 S_lin= 1.7479 S_tot= 2.0002
H      -2.5498343567     0.2581679391     0.0550422006
H      -0.5231263728    -0.3021680549    -0.0431993635
H       0.4421861670     0.8677455909    -0.0288275570
O       0.4126879561    -0.0906098953    -0.0784214256
