4
Step  37 E=    -226.063511 |G|=  0.002252 S_lin= 1.8975 S_tot= 2.0883
O       1.1255784799    -0.7715568590    -0.0000000640
O       1.2461115690     0.4203279940     0.0000000175
H      -1.0005586001     0.8804358556     0.0000000649
O      -1.6266697912     0.1356753607    -0.0000000061
