4
Step -19 E=    -151.473322 |G|=  0.001998 S_lin= 0.9057 S_tot= 0.9265
H       1.3505674686    -0.9299894183    -0.0010380908
O       1.3208946874     0.0406498889     0.0000960813
H      -0.4917843228     0.4952341369     0.0041300731
O      -1.0903251723    -0.2794768104    -0.0007157257
