4
Step -13 E=    -225.985286 |G|=  0.002467 S_lin= 0.6694 S_tot= 0.6847
O       0.6486652744    -0.6872659470     0.0000000852
O       0.8197540247     0.6084709977    -0.0000000511
H      -0.1089614191     0.9392693911    -0.0000000896
O      -1.6149963250    -0.1955921035     0.0000000358
