3
Step -13 E=    -150.792346 |G|=  0.017681 S_lin= 0.8532 S_tot= 0.9593
O       1.1637201785     0.0003875328     0.0000001175
O      -0.8836270432    -0.0006187312    -0.0000002833
H      -1.8512528575    -0.0010911404     0.0000001647
