3
Step -22 E=    -150.912955 |G|=  0.001245 S_lin= 1.3452 S_tot= 1.4250
O       0.7695009163     0.1079968558    -0.0000002474
O      -0.4916962504    -0.2662177514     0.0000000060
H       1.2866291137    -0.7170604770     0.0000000097
