4
Step -15 E=    -225.982657 |G|=  0.002158 S_lin= 0.8035 S_tot= 0.8466
O       0.7721499686    -0.6323725274    -0.2049724210
O       1.2135431249     0.5846234906     0.0370190673
H      -0.1947410363    -0.5268094578    -0.2987557491
O      -2.0966901970    -0.0163303196    -0.0976635375
