4
Step -17 E=    -151.413102 |G|=  0.002239 S_lin= 0.6862 S_tot= 0.6956
O       0.7036762262    -0.3726864119     0.0000175062
O      -0.2942362662     0.4805747124    -0.0003743466
H      -1.1036095916    -0.0684321592    -0.0002829666
H      -2.5703884381    -1.0904696011     0.0001829461
