5
Step -49 E=    -152.170019 |G|=  0.002469 S_lin= 2.0514 S_tot= 2.6665
H       0.8723198035    -0.5440368426     0.2221389719
O       1.6572621371     0.0145598810     0.0609587067
O      -1.1371353862    -0.2142384288     0.1827542613
H      -0.9678576633     0.7287626635     0.2555270922
H      -2.0671166985    -0.2954047105    -0.0391662834
