4
Step -162 E=     -76.906665 |G|=  0.000475 S_lin= 1.4840 S_tot= 1.5057
H      -2.0778333642     0.1722035872     0.0290093775
H      -1.5316206886    -0.3340049117     0.0021086987
H       0.6106348728     0.9254220146    -0.0308498608
O       0.7807325610    -0.0304851686    -0.0956744211
