4
Step -49  E=    -151.554331 |G|=  0.000483 S_lin= 1.7983 S_tot= 2.0525
O       0.5233710127    -0.2389242221     0.3402895413
H      -0.0724799730     0.1012275197     1.0178331091
H       2.3160001996     0.1032332501     0.7511714560
O       1.6868375380    -0.5257558624     1.1231051998
