4
Step -29 E=    -151.412856 |G|=  0.002325 S_lin= 1.6460 S_tot= 1.6940
H       0.7532588855    -0.8780522187    -0.1942520333
O       1.1597819137    -0.0696417148     0.1636668581
O       0.1756779984     0.7928313965     0.2866554639
H      -2.3088444149     0.4985950492    -0.2707297696
