4
Step   0 E=     -76.900461 |G|=  0.000296 S_lin= 0.0000 S_tot= 0.0000
H      -1.8465429997     0.1089340897     0.0208082241
H      -1.0616880588    -0.1327454106    -0.0134536331
H       0.4045287418     0.8596130393    -0.0271490075
O       0.2856157027    -0.1026661058    -0.0756117662
