3
PES scan, value:    0.6000 energy:  -76.0936109092
O         0.0011044131    0.0000000000    0.1757767441
H         0.0314143438    0.0000000000    0.7750106785
H         0.8651087443    0.0000000000   -0.2194572294
