3
Step   0 E=    -150.826492 |G|=  0.000001 S_lin= 0.0000 S_tot= 0.0000
O       0.4507953921     0.2741508543     0.0000000000
O      -0.6735880699    -0.1491844181     0.0000000000
H       1.7872262643    -1.0002477768     0.0000000000
