4
Step   0 E=    -151.468469 |G|=  0.000287 S_lin= 0.0000 S_tot= 0.0000
H       1.2396586360    -0.8476743092    -0.0008012198
O       1.0970924906     0.1100461083     0.0007352996
H      -0.1533881488     0.2975186367     0.0028882451
O      -1.0940110335    -0.2334729245    -0.0003499274
