3
Step   0 E=    -150.755904 |G|=  0.000000 S_lin= 0.0000 S_tot= 0.0000
O       0.8204245953     0.0002189180     0.0000000000
O      -0.5956631776    -0.0004768582     0.0000000000
H      -1.7959209528    -0.0010643991     0.0000000000
