4
Step   0 E=    -225.974643 |G|=  0.000039 S_lin= 0.0000 S_tot= 0.0000
O       0.6381058948    -0.6043485295    -0.1541906507
O       1.1939977932     0.5384595338     0.0170523555
H      -0.3639295720    -0.4103058397    -0.3121929623
O      -1.7739120730    -0.1146946707    -0.1150416700
