4
Step   0  E=    -151.472686 |G|=  0.000006 S_lin= 0.0000 S_tot= 0.0000
O       0.0033153514    -0.0117075083     0.0015990067
H      -0.0186105453     0.0122409901     0.9760094072
H       2.2499602526     0.0083221852     0.7348877106
O       2.2190639378    -0.5690746740     1.5199027079
