4
Step   0 E=    -151.386724 |G|=  0.000257 S_lin= 0.0000 S_tot= 0.0000
H       0.8106270102    -0.8717896716    -0.1815298397
O       0.9856381568     0.0183867540     0.1625855033
O      -0.3280555502     0.6211763006     0.1345079513
H      -1.6883351910     0.5759590714    -0.1302230916
