4
Step   0 E=    -151.411001 |G|=  0.000438 S_lin= 0.0000 S_tot= 0.0000
O       0.6498036974    -0.3641754647     0.0000097253
O      -0.3831298297     0.4153002539    -0.0002396665
H      -1.2117108071    -0.1823606236    -0.0004014343
H      -2.3195209818    -0.9197778214     0.0001748085
