5
Step   0 E=    -226.612359 |G|=  0.000419 S_lin= 0.0000 S_tot= 0.0000
O       1.0384580295    -0.5601182204    -0.0985761069
O       0.3996033923     0.6303603600     0.2038781763
H       1.2232641009    -0.9226548034     0.7787633837
H      -0.5818889176     0.5022110692    -0.2032496229
O      -1.7990626737     0.0418836668    -0.0443435866
