4
Step   0 E=    -225.978834 |G|=  0.000004 S_lin= 0.0000 S_tot= 0.0000
O       0.7027034586    -0.6734606682     0.0000000000
O       0.7843637034     0.6008138861     0.0000000000
H      -0.2907431273     0.7610248387     0.0000000000
O      -1.4518624159    -0.0234956989     0.0000000000
